# Configuration of a silica liquid

3000 atoms
2 atom types

2.4680164885327152e+00 3.7531983511463778e+01 xlo xhi
2.4680164885327152e+00 3.7531983511463778e+01 ylo yhi
2.4680164885327152e+00 3.7531983511463778e+01 zlo zhi

Masses

1 28.0855
2 15.9994

Atoms # charge

2938 2 -1.2000000000000000e+00 6.2813125114333497e+00 9.9352328221407618e+00 6.2495598509001073e+00 1 0 0
2777 2 -1.2000000000000000e+00 1.0003436166209134e+01 6.5915790433956607e+00 4.8610020213148086e+00 0 0 1
939 1 2.3999999999999999e+00 1.1038895358728945e+01 6.7395374241303081e+00 7.9571660270672435e+00 1 0 0
135 1 2.3999999999999999e+00 9.2304681291590835e+00 7.7997822164883743e+00 5.6807781121346927e+00 1 0 1
822 1 2.3999999999999999e+00 1.0559286684779822e+01 6.3093390503868241e+00 3.6192083395673564e+00 0 0 1
2855 2 -1.2000000000000000e+00 9.7908484389239572e+00 5.6732582379802707e+00 8.8868855211472706e+00 0 1 1
2028 2 -1.2000000000000000e+00 6.9805134394595267e+00 5.7476902874725511e+00 9.1158546075412783e+00 0 1 0
942 1 2.3999999999999999e+00 2.5637102489092496e+00 9.8118911053517213e+00 9.1929752417706396e+00 1 0 0
1742 2 -1.2000000000000000e+00 3.2930464252497043e+00 7.0181604766016701e+00 8.1613080343890196e+00 0 -1 1
1651 2 -1.2000000000000000e+00 3.5235166166242653e+00 5.6244606780274076e+00 6.1079033021484506e+00 0 1 0
200 1 2.3999999999999999e+00 8.4915196269957054e+00 5.1167955879421427e+00 9.6060039841020384e+00 0 1 0
1173 2 -1.2000000000000000e+00 4.8533505356273601e+00 7.6154877691683369e+00 5.9720526230521465e+00 1 0 0
2357 2 -1.2000000000000000e+00 1.0960256574355100e+01 4.8607621296032519e+00 3.2717598261741396e+00 0 1 1
1615 2 -1.2000000000000000e+00 3.5680132079752624e+00 8.7200392163571117e+00 9.7809387399474090e+00 1 1 1
960 1 2.3999999999999999e+00 3.5203572761599515e+00 7.1756847131217025e+00 9.6994506606143052e+00 1 1 0
2089 2 -1.2000000000000000e+00 7.5115827746198471e+00 7.6399900624407646e+00 5.2320908351209496e+00 1 1 0
206 1 2.3999999999999999e+00 3.5526335131265521e+00 6.8771754666435676e+00 6.6394729300535404e+00 1 0 0
96 1 2.3999999999999999e+00 6.1714245536873129e+00 8.4446240621504529e+00 5.2431450054933029e+00 1 1 1
2890 2 -1.2000000000000000e+00 1.0045041711830539e+01 7.6810874641450670e+00 7.1800858452605203e+00 0 0 0
196 1 2.3999999999999999e+00 4.0380810699271850e+00 4.9945517285742369e+00 4.6232647613941653e+00 0 0 1
2995 2 -1.2000000000000000e+00 8.5988643170587551e+00 3.5059245662296461e+00 9.6369302428463648e+00 1 0 0
1799 2 -1.2000000000000000e+00 5.7253607004455649e+00 9.5473250775946319e+00 3.8176031342459007e+00 1 1 0
453 1 2.3999999999999999e+00 6.2451416371871833e+00 6.2312690098954633e+00 1.0726266517306531e+01 1 1 0
1836 2 -1.2000000000000000e+00 4.7677899667399988e+00 6.2901610583738083e+00 1.0118556737099365e+01 1 1 1
2217 2 -1.2000000000000000e+00 8.2145503470208752e+00 5.5929379672080817e+00 1.0980204194532558e+01 2 0 0
2747 2 -1.2000000000000000e+00 5.6293362613397493e+00 4.6792543845071712e+00 3.9977775089563004e+00 0 1 0
1074 2 -1.2000000000000000e+00 9.5551320931401005e+00 8.8612734627541414e+00 4.5457417104291853e+00 0 1 0
2303 2 -1.2000000000000000e+00 1.1913162205114929e+01 9.6173814277201259e+00 1.0416037595783408e+01 1 0 1
1277 2 -1.2000000000000000e+00 1.2177756669770037e+01 6.7884825371393012e+00 9.0218607729993554e+00 0 1 0
1024 2 -1.2000000000000000e+00 1.2594101365005326e+01 1.9358233352122621e+01 1.5166927234204781e+01 0 0 1
2678 2 -1.2000000000000000e+00 9.4188430935144591e+00 1.0677284107250559e+01 1.0249112078635008e+01 0 1 1
1028 2 -1.2000000000000000e+00 6.4633048697735518e+00 6.4723237394037145e+00 2.5447420393819611e+00 0 0 0
1720 2 -1.2000000000000000e+00 6.3249899307065043e+00 7.6077982040775236e+00 1.1502294532837787e+01 1 0 1
543 1 2.3999999999999999e+00 6.8923645762862265e+00 4.9453676006258558e+00 2.8992778700504820e+00 1 0 1
2046 2 -1.2000000000000000e+00 2.9215641491805795e+00 1.6920890964398012e+01 1.3068820846931638e+01 0 0 0
167 1 2.3999999999999999e+00 2.4891526617257500e+00 1.1578185525382297e+01 1.9578133692092020e+01 1 1 -1
1784 2 -1.2000000000000000e+00 8.0260134324047439e+00 3.9813059525819599e+00 3.5204156245778835e+00 0 0 1
2147 2 -1.2000000000000000e+00 1.2482815949688851e+01 1.8649909214369572e+01 2.5866112090542832e+00 0 0 0
1414 2 -1.2000000000000000e+00 3.6907146331024561e+00 3.6223850185095543e+00 4.5521998033130933e+00 0 1 1
1330 2 -1.2000000000000000e+00 4.4182045215610213e+00 3.7670807656699283e+00 9.7498398408770619e+00 0 1 0
2059 2 -1.2000000000000000e+00 3.1181808792498371e+00 5.4795754215705168e+00 3.2312939369101983e+00 0 0 1
2456 2 -1.2000000000000000e+00 1.1489663931891346e+01 5.6120185191257494e+00 6.9553823631748912e+00 1 0 1
2035 2 -1.2000000000000000e+00 1.7294769832112845e+01 6.3992302651816066e+00 1.0183478148965598e+01 0 0 0
427 1 2.3999999999999999e+00 1.1594029891230322e+01 3.4210511292706980e+00 3.2938828152433191e+00 0 1 1
2697 2 -1.2000000000000000e+00 1.1689847701991896e+01 7.2918930232545227e+00 3.2425269382105912e+00 0 1 1
203 1 2.3999999999999999e+00 1.2931609562741158e+01 8.2999512225838465e+00 1.0164160839143666e+01 1 0 1
273 1 2.3999999999999999e+00 1.5155725114406499e+01 4.5716782018055504e+00 4.7235011402813072e+00 0 0 1
2098 2 -1.2000000000000000e+00 1.3742535332779413e+01 9.0367008784206053e+00 9.1063486967348268e+00 0 0 1
877 1 2.3999999999999999e+00 1.6093389027697238e+01 9.1607774892288880e+00 3.5773628166192974e+00 0 1 0
79 1 2.3999999999999999e+00 1.4818281179369123e+01 8.2368056640473455e+00 8.5063353612613994e+00 1 0 0
1340 2 -1.2000000000000000e+00 1.1468982042521391e+01 3.1270232871177788e+00 6.4182769150936609e+00 0 0 0
2948 2 -1.2000000000000000e+00 1.3693614719504513e+01 7.6829790844339536e+00 4.5667633718316081e+00 0 0 0
651 1 2.3999999999999999e+00 1.5068614392731282e+01 7.4957629747794261e+00 5.5567745194102312e+00 0 0 1
1547 2 -1.2000000000000000e+00 1.6241482129925934e+01 9.3828801567309732e+00 7.9873075499494393e+00 0 0 0
2575 2 -1.2000000000000000e+00 1.5040050768951243e+01 5.7955031585349133e+00 5.6799031152310695e+00 0 1 1
2061 2 -1.2000000000000000e+00 1.4551381646113954e+01 7.7133398245069484e+00 7.0771465274649215e+00 0 1 0
760 1 2.3999999999999999e+00 1.2662798426093929e+01 4.2149322037217640e+00 6.6930421773774897e+00 0 0 0
2063 2 -1.2000000000000000e+00 1.3880776888689581e+01 4.0085410584666237e+00 5.4468097414362013e+00 -1 0 0
2892 2 -1.2000000000000000e+00 1.2834452374321527e+01 4.1145558617129980e+00 8.3242945230039034e+00 0 0 0
1794 2 -1.2000000000000000e+00 1.5906396498726531e+01 4.7795505774868126e+00 3.3398249942912348e+00 0 0 1
1062 2 -1.2000000000000000e+00 1.7560302421984083e+01 1.1029135922101961e+01 6.5175070449243169e+00 1 0 1
1386 2 -1.2000000000000000e+00 1.8046557623787375e+01 9.2909237891944247e+00 5.0337570985984126e+00 0 0 0
1296 2 -1.2000000000000000e+00 1.5803314837312900e+01 7.6902919912302341e+00 4.1822847930235367e+00 0 1 1
2971 2 -1.2000000000000000e+00 1.7689932954417252e+01 2.6628496614303026e+00 2.9434939609123512e+00 1 0 0
372 1 2.3999999999999999e+00 1.3622777997338874e+01 3.4902615146768952e+00 9.5909628111473957e+00 0 0 0
2655 2 -1.2000000000000000e+00 1.4979445150311751e+01 8.7490587605208052e+00 2.5852210639835405e+00 1 1 0
2140 2 -1.2000000000000000e+00 1.3735023610841566e+01 4.5028392084479805e+00 1.1010248381743450e+01 0 0 0
2374 2 -1.2000000000000000e+00 1.5906680326650580e+01 2.7654036850299346e+00 4.7777172032685948e+00 0 1 0
1685 2 -1.2000000000000000e+00 1.9401962761084267e+01 1.0335511903179864e+01 1.4900060399498592e+01 0 0 0
2708 2 -1.2000000000000000e+00 1.4765322088724769e+01 7.4193504165689168e+00 9.9977121076546851e+00 0 0 1
115 1 2.3999999999999999e+00 1.6181194031970819e+01 7.3000059012808300e+00 1.1011233005083227e+01 0 0 0
413 1 2.3999999999999999e+00 1.8671057387192132e+01 9.8988417461098273e+00 6.3554627685322203e+00 0 1 0
989 1 2.3999999999999999e+00 6.1871156034682189e+00 1.9148945126218937e+01 2.6990783757673475e+00 0 0 0
1686 2 -1.2000000000000000e+00 1.5321556259068966e+01 1.1667370181463474e+01 6.8254814874953800e+00 0 0 0
219 1 2.3999999999999999e+00 1.6384451227913960e+01 1.0923023581178894e+01 7.7205015114399886e+00 0 0 1
2870 2 -1.2000000000000000e+00 1.5573568190938985e+01 1.0058231497088340e+01 4.9364556608460024e+00 0 0 1
2660 2 -1.2000000000000000e+00 1.9270652104042043e+01 1.4006783134358678e+01 1.7379437335565491e+01 1 0 0
566 1 2.3999999999999999e+00 1.7620529337051511e+01 5.0262604405488212e+00 8.9039909595157241e+00 0 0 0
1926 2 -1.2000000000000000e+00 1.8324841124498896e+01 5.4074774601778817e+00 7.4770476484749819e+00 0 1 0
2920 2 -1.2000000000000000e+00 1.8999909422086052e+01 9.0576106266010115e+00 7.3947357908830949e+00 0 0 -1
923 1 2.3999999999999999e+00 1.3429458302612611e+01 7.9599794381403726e+00 2.9429779388550275e+00 0 0 1
2020 2 -1.2000000000000000e+00 1.8516079152740652e+01 3.0336217583838394e+00 6.4953894713818237e+00 -1 1 1
2230 2 -1.2000000000000000e+00 1.9019746202017600e+01 5.2470672104645359e+00 4.9803415149645263e+00 -1 1 0
611 1 2.3999999999999999e+00 1.9243437681299152e+01 5.2991896965791909e+00 3.3864420142949943e+00 0 1 0
2831 2 -1.2000000000000000e+00 1.7689770413945212e+01 8.1966677218109272e+00 1.2694732254364267e+01 -1 1 -1
2966 2 -1.2000000000000000e+00 1.6127411730752698e+01 5.2426760482550741e+00 8.1923250967355283e+00 0 0 1
2808 2 -1.2000000000000000e+00 1.9558617348697773e+01 1.1907313588477367e+01 1.9190526995851769e+01 0 0 1
2431 2 -1.2000000000000000e+00 1.6679143395819764e+01 8.9787199859320701e+00 1.0832860240215000e+01 0 0 0
2318 2 -1.2000000000000000e+00 1.8654563301618257e+01 3.7564642213116084e+00 9.5644353643896807e+00 0 0 0
600 1 2.3999999999999999e+00 1.9177993607011459e+01 4.5840718953472734e+00 6.3327574928751407e+00 0 1 0
11 1 2.3999999999999999e+00 1.9707587284569534e+01 1.9858455369296269e+01 1.9142722735224378e+01 0 1 0
1886 2 -1.2000000000000000e+00 3.1560857046243251e+00 1.8667470626654115e+01 8.3736059631049073e+00 1 0 1
463 1 2.3999999999999999e+00 5.3457512591920402e+00 1.1136288116675717e+01 3.3393869236388634e+00 1 0 1
2719 2 -1.2000000000000000e+00 4.0418898194096720e+00 1.1665612664645739e+01 8.7257493014691399e+00 0 1 2
551 1 2.3999999999999999e+00 2.9740384854042414e+00 1.6477369633807541e+01 1.1459046177480189e+01 0 1 0
754 1 2.3999999999999999e+00 9.2352665006768255e+00 9.2904232936969180e+00 3.0202428555796974e+00 1 0 0
1402 2 -1.2000000000000000e+00 4.7570372576886690e+00 1.3843345821507812e+01 9.4957138374316905e+00 0 0 1
660 1 2.3999999999999999e+00 6.7923224773431148e+00 1.1533957739443828e+01 5.6645366931938472e+00 0 1 0
442 1 2.3999999999999999e+00 4.7328473132733198e+00 1.8156215493990882e+01 4.9790485825773807e+00 0 0 0
733 1 2.3999999999999999e+00 4.9335419818841153e+00 1.2956033455711051e+01 8.0881842807206574e+00 1 1 1
1151 2 -1.2000000000000000e+00 9.9148183627084272e+00 1.4855230939843796e+01 4.4893773160198851e+00 0 0 0
860 1 2.3999999999999999e+00 1.0801739423096315e+01 1.3979007616987422e+01 5.6736070069988207e+00 1 0 0
2285 2 -1.2000000000000000e+00 8.4410219528571275e+00 1.4819245096573193e+01 6.9480700260371000e+00 0 0 1
2521 2 -1.2000000000000000e+00 7.3528721094428500e+00 1.6669695936199787e+01 9.4843776043476922e+00 1 0 0
139 1 2.3999999999999999e+00 8.2807090684534828e+00 1.6505372662725435e+01 6.1764545313882877e+00 1 1 0
1900 2 -1.2000000000000000e+00 7.5820271243257977e+00 1.5841805394989475e+01 4.7328269672945034e+00 0 0 0
2027 2 -1.2000000000000000e+00 6.9961237947513348e+00 1.7479842484329140e+01 6.7757760733581591e+00 1 1 1
83 1 2.3999999999999999e+00 9.6776485853452279e+00 1.9762799927038959e+01 6.0839225291443970e+00 0 1 1
2881 2 -1.2000000000000000e+00 9.2420588785695941e+00 1.8062985041813604e+01 6.1313621295923930e+00 0 0 0
2860 2 -1.2000000000000000e+00 5.4367510069581781e+00 1.5656419586861343e+01 7.9586268799137994e+00 1 0 0
759 1 2.3999999999999999e+00 6.2645980146517521e+00 1.6958949426440007e+01 8.4027689078739236e+00 0 0 1
771 1 2.3999999999999999e+00 8.9883904374696861e+00 1.3845985505226331e+01 8.2585371914271022e+00 1 0 1
211 1 2.3999999999999999e+00 7.9870624277819164e+00 1.1152703801154964e+01 9.9505491920160321e+00 1 0 0
2235 2 -1.2000000000000000e+00 1.0088681087953542e+01 1.3454479519935303e+01 6.8237736876311246e+00 0 0 1
2009 2 -1.2000000000000000e+00 4.3821497697861655e+00 1.6897870397887559e+01 6.0472112032283061e+00 1 0 0
177 1 2.3999999999999999e+00 8.3304833863822161e+00 1.5362060614533087e+01 3.6829657857951110e+00 1 0 1
2477 2 -1.2000000000000000e+00 3.8895973170858937e+00 1.5246924139405987e+01 1.1420098793145229e+01 0 1 -1
2736 2 -1.2000000000000000e+00 7.9582202475117372e+00 1.2566616073415897e+01 8.7379039417929150e+00 -1 0 0
2983 2 -1.2000000000000000e+00 7.6172677340696779e+00 1.1673998604790180e+01 5.0698293785199837e+00 0 1 0
43 1 2.3999999999999999e+00 9.9716402434454192e+00 1.6180557719401786e+01 9.6354058883099842e+00 0 0 0
1704 2 -1.2000000000000000e+00 8.8177462080968088e+00 1.5048329891263801e+01 1.0640014625829751e+01 1 0 0
1464 2 -1.2000000000000000e+00 1.0452252770733327e+01 1.7712132547680778e+01 9.0567093019917131e+00 0 0 1
1561 2 -1.2000000000000000e+00 5.7202695266920713e+00 1.8188428215939986e+01 3.8126481231291636e+00 1 0 0
1495 2 -1.2000000000000000e+00 5.3131384088650631e+00 1.8065692196402303e+01 9.1006677021291740e+00 1 0 0
68 1 2.3999999999999999e+00 3.3090251675476980e+00 1.5443480092800925e+01 6.8790343866641956e+00 1 0 0
2428 2 -1.2000000000000000e+00 5.0461576988686900e+00 1.1768497145053209e+01 4.8071839717754248e+00 0 1 1
1890 2 -1.2000000000000000e+00 5.6804970517512539e+00 1.2504263793195825e+01 6.7735118374862955e+00 0 0 0
2605 2 -1.2000000000000000e+00 3.6860098499664669e+00 1.4013861864377601e+01 7.5084121675681645e+00 1 1 1
1908 2 -1.2000000000000000e+00 7.3747208762152150e+00 1.4760220714063536e+01 2.7333853385311353e+00 0 1 1
769 1 2.3999999999999999e+00 3.9802660360209918e+00 1.9021511110948829e+01 9.5225583238504719e+00 1 -1 0
310 1 2.3999999999999999e+00 1.0201932908460169e+01 1.9530539770085436e+01 9.0159125499435344e+00 0 0 0
1744 2 -1.2000000000000000e+00 3.5151505008111821e+00 1.7833142248539687e+01 1.0845658859610083e+01 1 -1 0
2417 2 -1.2000000000000000e+00 3.9651093150689478e+00 1.9673421829314549e+01 4.7234184299874045e+00 0 1 1
1089 2 -1.2000000000000000e+00 9.0768248736516703e+00 1.6410762654600251e+01 2.8735829480121451e+00 0 0 1
1935 2 -1.2000000000000000e+00 1.9499107890080133e+01 1.5871877576063218e+01 6.4309790090892269e+00 0 0 1
1092 2 -1.2000000000000000e+00 1.9819796983633342e+01 1.2743950437489078e+01 9.8296675107831071e+00 0 0 0
2141 2 -1.2000000000000000e+00 3.8146048672625894e+00 1.0952527465062312e+01 2.6497257722936092e+00 1 1 1
1601 2 -1.2000000000000000e+00 1.7853769839784846e+01 5.7998860850067775e+00 2.9657413060933333e+00 1 0 1
1163 2 -1.2000000000000000e+00 2.5322688651152987e+00 9.9010183886119449e+00 4.9445080273890039e+00 0 0 1
57 1 2.3999999999999999e+00 1.2344532397932722e+01 1.2488772507042276e+01 3.0178219129814394e+00 0 0 0
1592 2 -1.2000000000000000e+00 1.7530049034876047e+01 1.6032567694960338e+01 3.4308117591390381e+00 0 1 0
642 1 2.3999999999999999e+00 1.9802351110264979e+01 8.8228615998840763e+00 8.7252803519926800e+00 -1 0 0
2991 2 -1.2000000000000000e+00 1.9294912762719274e+01 1.7556447167172990e+01 4.9670287952619852e+00 -1 0 0
1972 2 -1.2000000000000000e+00 6.7701587266324879e+00 1.1588271381336776e+01 2.6727005547347265e+00 1 0 1
1842 2 -1.2000000000000000e+00 1.1575982648294206e+01 1.2685206865403224e+01 4.5067429611488121e+00 1 0 1
41 1 2.3999999999999999e+00 1.8326272815729777e+01 1.4612613285868870e+01 6.3693634390730489e+00 0 0 0
590 1 2.3999999999999999e+00 1.2208950471050700e+01 1.9145479962280813e+01 4.1247926635759828e+00 0 0 0
1331 2 -1.2000000000000000e+00 1.2578914994627324e+01 1.7659340406249726e+01 4.6049213274974061e+00 1 0 0
2113 2 -1.2000000000000000e+00 1.3149781766235801e+01 1.8197176992993796e+01 7.1659999765003564e+00 1 1 0
1741 2 -1.2000000000000000e+00 1.0090125123476238e+01 1.5276155414145636e+01 8.5926388571924477e+00 1 1 1
414 1 2.3999999999999999e+00 1.8485358137647520e+01 1.1628866523336811e+01 5.0516336162858870e+00 0 0 1
1017 2 -1.2000000000000000e+00 1.7385167113442897e+01 1.3956128179138203e+01 7.5186243309678886e+00 0 1 1
2489 2 -1.2000000000000000e+00 1.3859204922482625e+01 1.1993839618292638e+01 3.7328913141800033e+00 0 0 0
837 1 2.3999999999999999e+00 1.4846193065978332e+01 1.1711207236305979e+01 4.9306194167942312e+00 1 0 1
1576 2 -1.2000000000000000e+00 1.6419668983084371e+01 1.4114173940524966e+01 9.8838464656533187e+00 1 0 1
2394 2 -1.2000000000000000e+00 1.2400069966090928e+01 1.4664459440989825e+01 5.8449338945792828e+00 0 0 1
792 1 2.3999999999999999e+00 1.7426632683215608e+01 1.7474234403893618e+01 1.1399514131812516e+01 0 0 1
109 1 2.3999999999999999e+00 1.6156937085702609e+01 1.3692437334488893e+01 8.4602658279044043e+00 0 0 1
1050 2 -1.2000000000000000e+00 1.4631916076676772e+01 1.8414312552611285e+01 4.6678288782257571e+00 2 0 1
1232 2 -1.2000000000000000e+00 1.6556085959269737e+01 1.2008868204790843e+01 8.8297510570668898e+00 0 0 1
863 1 2.3999999999999999e+00 1.3333689418702569e+01 1.8666112730886482e+01 8.7153106380662475e+00 1 0 1
398 1 2.3999999999999999e+00 1.3645353834791973e+01 1.7568174567540559e+01 5.5422359158583578e+00 0 0 -1
1632 2 -1.2000000000000000e+00 1.4455389552006022e+01 1.6253966749605194e+01 6.0754363955345454e+00 1 0 0
2194 2 -1.2000000000000000e+00 1.4879655335091337e+01 1.3371957000807296e+01 5.2694063116385799e+00 0 0 0
410 1 2.3999999999999999e+00 1.4154060839078243e+01 1.4553883648069286e+01 5.9219646471129241e+00 0 0 1
2902 2 -1.2000000000000000e+00 1.4817773871983778e+01 1.3991523549543150e+01 7.7903469009551953e+00 0 1 -1
1569 2 -1.2000000000000000e+00 1.8009623178112012e+01 1.8382909488692043e+01 1.0242632312253033e+01 1 0 0
1142 2 -1.2000000000000000e+00 1.1964295502979198e+01 1.9814500711571142e+01 9.2486566340642646e+00 0 0 0
1682 2 -1.2000000000000000e+00 1.8610302316311895e+01 1.3159494681962114e+01 5.7128969993014014e+00 -1 1 1
2585 2 -1.2000000000000000e+00 1.7197261854261754e+01 1.9165696374479893e+01 4.3103777599272366e+00 0 1 1
1478 2 -1.2000000000000000e+00 1.6920408500184585e+01 1.1826817072737986e+01 4.0856588173621837e+00 0 0 1
409 1 2.3999999999999999e+00 1.7790216585583373e+01 1.7718079969304462e+01 3.7504556645564175e+00 1 0 2
1371 2 -1.2000000000000000e+00 1.9020548066994781e+01 1.1698446909956424e+01 3.3173811048859925e+00 1 0 0
1240 2 -1.2000000000000000e+00 1.5327102163822230e+01 1.1202065118918545e+01 1.9289078162460857e+01 0 1 0
2519 2 -1.2000000000000000e+00 9.9606038946866544e+00 1.9895509366106204e+01 1.0729772999208638e+01 0 0 0
455 1 2.3999999999999999e+00 1.4305520390181350e+01 1.6930323285363237e+01 1.1172180536459006e+01 0 0 -1
1259 2 -1.2000000000000000e+00 1.5935247377721783e+01 1.7698328030561456e+01 1.1411599403829783e+01 0 -1 1
1912 2 -1.2000000000000000e+00 1.3989860851707252e+01 1.7612525781398652e+01 9.7929195958678221e+00 0 0 0
959 1 2.3999999999999999e+00 1.8699776907703097e+01 1.9925147904966025e+01 1.2029902677222195e+01 1 1 1
2518 2 -1.2000000000000000e+00 9.4236997232064361e+00 9.0492282803611541e+00 1.1840673398195831e+01 0 0 0
1703 2 -1.2000000000000000e+00 6.0799568508687658e+00 4.8221403657389370e+00 1.1742068843668607e+01 1 0 0
2998 2 -1.2000000000000000e+00 4.6801046943651814e+00 1.0519717618015736e+01 1.1849655888388272e+01 0 0 0
2324 2 -1.2000000000000000e+00 5.6456924489552733e+00 2.7032967971952209e+00 1.6264372077518168e+01 1 0 0
1473 2 -1.2000000000000000e+00 3.9307630931992223e+00 3.0599362575027551e+00 1.8369422693702113e+01 0 0 1
2134 2 -1.2000000000000000e+00 1.7401520210002779e+01 1.2841383785017650e+01 1.9121645426662969e+01 0 0 -1
2552 2 -1.2000000000000000e+00 1.0251248430028262e+01 5.3443971527582734e+00 1.8976814670566633e+01 1 0 1
2684 2 -1.2000000000000000e+00 1.0468453418386762e+01 9.1735984398251098e+00 1.8129109718956162e+01 0 1 0
1181 2 -1.2000000000000000e+00 1.9350124686154221e+01 1.5853455577212157e+01 1.9108740431675230e+01 0 -1 1
750 1 2.3999999999999999e+00 1.0463751495438864e+01 1.0194972298682309e+01 1.1404868864062149e+01 0 0 1
1967 2 -1.2000000000000000e+00 7.2660548007428005e+00 3.9564373822661274e+00 1.4284434975632694e+01 1 1 1
249 1 2.3999999999999999e+00 3.2168016042896097e+00 3.6987223394344526e+00 2.9479691490297246e+00 1 -1 1
1500 2 -1.2000000000000000e+00 8.2353489523226493e+00 4.7447061924601277e+00 1.9020315748334838e+01 0 1 -1
2850 2 -1.2000000000000000e+00 9.3652973470321221e+00 5.2294891213601069e+00 1.6369316894654837e+01 1 1 1
2827 2 -1.2000000000000000e+00 1.0362922460885066e+01 2.6033623594599713e+00 3.8651938892196203e+00 0 0 1
1780 2 -1.2000000000000000e+00 5.0224419026753244e+00 5.4582199590753175e+00 1.5355355742001334e+01 1 1 0
2744 2 -1.2000000000000000e+00 5.0587676237553030e+00 3.6200732104436391e+00 1.3783695357474043e+01 1 0 0
2979 2 -1.2000000000000000e+00 3.6553391350918316e+00 5.7625813438127995e+00 1.3122419461978749e+01 1 0 0
2853 2 -1.2000000000000000e+00 1.0728682701623542e+01 1.1527064640443125e+01 1.2283753148178725e+01 0 0 0
637 1 2.3999999999999999e+00 3.8220583571108486e+00 9.4088178692941504e+00 1.7047474877674642e+01 1 0 0
2927 2 -1.2000000000000000e+00 9.8645271754230865e+00 4.8656654516809841e+00 1.3854884005965722e+01 0 1 -1
1 1 2.3999999999999999e+00 1.0482354395642536e+01 1.1282943569182660e+01 1.4031939051633579e+01 0 0 1
2539 2 -1.2000000000000000e+00 7.5048970956841110e+00 6.8553395824709744e+00 1.7452532291783541e+01 0 0 1
192 1 2.3999999999999999e+00 8.9546713836965246e+00 5.5582173993093500e+00 1.7834814731226359e+01 1 1 0
1339 2 -1.2000000000000000e+00 9.0224201767458894e+00 1.1076827017943476e+01 1.4359133308283958e+01 0 1 0
2331 2 -1.2000000000000000e+00 7.4241013933886970e+00 9.3343956324344575e+00 1.8512341490436274e+01 0 1 1
213 1 2.3999999999999999e+00 7.4614471317303561e+00 1.0409319308656009e+01 1.4284634456469755e+01 1 1 0
2545 2 -1.2000000000000000e+00 7.5433316547533451e+00 9.2127461737713752e+00 1.5255834219531938e+01 0 0 0
35 1 2.3999999999999999e+00 6.7510603931830255e+00 8.3485280955989865e+00 1.7564155340983781e+01 0 0 -1
694 1 2.3999999999999999e+00 6.9138621494867794e+00 7.9438700291549376e+00 1.2806678212986442e+01 1 0 1
932 1 2.3999999999999999e+00 8.5809230964431293e+00 1.0505540558499016e+01 1.8564389670401809e+01 0 0 0
1728 2 -1.2000000000000000e+00 4.5227660905838842e+00 1.0508849076329545e+01 1.6011921755311018e+01 0 0 1
2120 2 -1.2000000000000000e+00 5.5390051781960228e+00 7.6483872009277016e+00 1.3658119997113685e+01 1 -1 0
1814 2 -1.2000000000000000e+00 8.2558085178994300e+00 7.2744766496738116e+00 1.3614013005908834e+01 1 1 1
827 1 2.3999999999999999e+00 5.9859799109965657e+00 3.5354226320342796e+00 1.2655992187513551e+01 1 0 0
380 1 2.3999999999999999e+00 9.4198866319376151e+00 6.3444487256761573e+00 1.3398851014680961e+01 0 0 0
374 1 2.3999999999999999e+00 9.3098391732551455e+00 4.4198733941258244e+00 1.5173335180049472e+01 0 0 0
1051 2 -1.2000000000000000e+00 3.6558932543050826e+00 7.9671722116216266e+00 1.4888400845181696e+01 1 1 0
429 1 2.3999999999999999e+00 4.4054958993170681e+00 6.7282106050830111e+00 1.4412622445580741e+01 1 0 0
233 1 2.3999999999999999e+00 5.8556486933500018e+00 4.0250068725145205e+00 1.5211728754576802e+01 0 1 0
1968 2 -1.2000000000000000e+00 1.1000103006834001e+01 6.9586847466704569e+00 1.3456890991095868e+01 1 0 0
1147 2 -1.2000000000000000e+00 7.0837091664103848e+00 9.4263140327677704e+00 1.2943281518323767e+01 0 1 0
1896 2 -1.2000000000000000e+00 6.1643683211451679e+00 1.1496606278804759e+01 1.4369828014334015e+01 0 0 0
2232 2 -1.2000000000000000e+00 3.6240755193303364e+00 1.0564084218147261e+01 1.8470699769761676e+01 0 0 1
2007 2 -1.2000000000000000e+00 5.0435329538338545e+00 8.4920577711706891e+00 1.7398423593908952e+01 0 1 0
1169 2 -1.2000000000000000e+00 1.4993542022374212e+01 1.6275159251751226e+01 1.8982089539850222e+01 0 0 0
2761 2 -1.2000000000000000e+00 1.7099587991423991e+01 3.2907653915210653e+00 1.7380841121336516e+01 0 0 1
2483 2 -1.2000000000000000e+00 1.2740950709121496e+01 8.0907225818767223e+00 1.2005943005984392e+01 0 -1 0
1213 2 -1.2000000000000000e+00 1.2692315226953282e+01 3.5507589871816991e+00 1.9680250627266503e+01 0 1 0
1518 2 -1.2000000000000000e+00 1.2373816365869754e+01 7.1368695832443976e+00 1.9626599563682664e+01 0 0 0
574 1 2.3999999999999999e+00 1.9015290128892726e+01 4.8296516928898781e+00 1.5301767335548645e+01 0 0 0
412 1 2.3999999999999999e+00 1.7204400745717290e+01 1.9314691118137304e+01 1.6977082481076351e+01 0 0 0
2412 2 -1.2000000000000000e+00 1.8156556704440248e+01 1.2087026931633336e+01 1.6560469892504518e+01 0 0 0
1044 2 -1.2000000000000000e+00 1.9062931201405750e+01 7.2258343300575438e+00 1.8099718137165603e+01 1 0 0
690 1 2.3999999999999999e+00 1.9270804692543930e+01 5.9047424316025285e+00 1.8881199294155181e+01 0 1 -1
2829 2 -1.2000000000000000e+00 1.1719806948371263e+01 1.0327793145281394e+01 1.4273834376790552e+01 0 0 0
2347 2 -1.2000000000000000e+00 1.8947607795658577e+01 1.0520452088963104e+01 1.1824064735529872e+01 0 1 0
895 1 2.3999999999999999e+00 1.6606477664476984e+01 3.8597865045326949e+00 1.8806500068658558e+01 0 0 0
1600 2 -1.2000000000000000e+00 1.7934957570781307e+01 4.9405138290148614e+00 1.8678042056728231e+01 0 0 0
635 1 2.3999999999999999e+00 1.7765869910587035e+01 2.5234946635008879e+00 1.5830200720372753e+01 0 1 0
2915 2 -1.2000000000000000e+00 1.6290374119409517e+01 3.7581620329213230e+00 1.0912033845864766e+01 0 0 1
454 1 2.3999999999999999e+00 1.2688343795682405e+01 7.4903826707412744e+00 1.3422412179783549e+01 0 0 0
2712 2 -1.2000000000000000e+00 1.3233048176512842e+01 6.3574896654800455e+00 1.4345985263287250e+01 0 1 1
1581 2 -1.2000000000000000e+00 1.7031421478169086e+01 9.0520105760608445e+00 1.9038648381943634e+01 0 1 0
2547 2 -1.2000000000000000e+00 1.7643901119973961e+01 5.6853525578288444e+00 1.5451659080319624e+01 0 0 0
2838 2 -1.2000000000000000e+00 8.6183465690669330e+00 1.9877264043046182e+01 8.8324930597459712e+00 1 0 -1
2083 2 -1.2000000000000000e+00 1.8500253025308691e+01 9.4037982041990595e+00 1.7211093092797483e+01 0 0 0
1286 2 -1.2000000000000000e+00 1.5166710486725064e+01 6.6339557831888563e+00 1.2088416950517683e+01 0 0 0
1262 2 -1.2000000000000000e+00 1.2459738296030588e+01 5.0158316792631616e+00 1.7943067771662406e+01 0 1 0
2522 2 -1.2000000000000000e+00 1.3541491353235497e+01 8.5553311980721585e+00 1.3965415454208625e+01 0 1 0
2144 2 -1.2000000000000000e+00 1.3148414637558972e+01 9.9854927837703116e+00 1.8529519882227461e+01 0 0 0
2167 2 -1.2000000000000000e+00 1.1998448376650156e+01 9.0862801874203285e+00 1.6591197213649934e+01 0 0 1
532 1 2.3999999999999999e+00 1.1661339552037635e+01 1.0162363553389369e+01 1.8041863780367848e+01 0 1 0
252 1 2.3999999999999999e+00 1.2693964569023876e+01 9.6574729283178655e+00 1.5133479229419091e+01 0 0 0
2499 2 -1.2000000000000000e+00 1.5685071857041862e+01 7.6733974780372449e+00 1.5098043828216079e+01 1 1 0
2080 2 -1.2000000000000000e+00 1.4968939548118566e+01 4.0358003842502868e+00 1.8395785271654788e+01 0 1 0
665 1 2.3999999999999999e+00 1.5067132490045918e+01 4.9675199909837513e+00 1.1920813211644745e+01 0 1 1
220 1 2.3999999999999999e+00 1.6441373783315719e+01 6.5837769254415601e+00 1.5734842572805213e+01 -1 1 0
836 1 2.3999999999999999e+00 1.7498882252040712e+01 9.7765296143768339e+00 1.2073086822157947e+01 0 0 0
2398 2 -1.2000000000000000e+00 1.6934364684404606e+01 7.3031903439889989e+00 1.7097160587210475e+01 0 0 1
2379 2 -1.2000000000000000e+00 1.4785217247111795e+01 4.4627509625984354e+00 1.3274962795033018e+01 0 1 -1
173 1 2.3999999999999999e+00 1.4094677851299545e+01 5.0559423703885358e+00 1.4905095378887001e+01 -1 0 1
118 1 2.3999999999999999e+00 1.7920513592622356e+01 8.0744087111596734e+00 1.8008297371370922e+01 1 1 1
1869 2 -1.2000000000000000e+00 1.6786896914922885e+01 9.7972015341110588e+00 1.5444942351955852e+01 1 0 0
406 1 2.3999999999999999e+00 1.3548600276285756e+01 4.0599708847772673e+00 1.8419274211709403e+01 1 1 1
1587 2 -1.2000000000000000e+00 1.4174620456775680e+01 9.7684214447716080e+00 1.5511131445947219e+01 0 0 0
1247 2 -1.2000000000000000e+00 1.5074831140207635e+01 5.4524114454769919e+00 1.5972468245036643e+01 0 1 0
247 1 2.3999999999999999e+00 1.8119378583470230e+01 1.0612852510516264e+01 1.5979720052906815e+01 0 0 0
2504 2 -1.2000000000000000e+00 1.3085874544476642e+01 3.8240531417491521e+00 1.4808323321094745e+01 0 1 0
1827 2 -1.2000000000000000e+00 1.6237746389494767e+01 1.0552181243359879e+01 1.2939698817349395e+01 0 0 0
632 1 2.3999999999999999e+00 1.5586176224834499e+01 9.2800675593602691e+00 1.4548433097573460e+01 0 0 0
1817 2 -1.2000000000000000e+00 1.8892224938598464e+01 3.4865942063695439e+00 1.5681394349167991e+01 0 1 0
1599 2 -1.2000000000000000e+00 1.7482031939606124e+01 1.8318392619564150e+01 1.5845196618546902e+01 0 -1 0
391 1 2.3999999999999999e+00 1.1677825849722424e+01 5.7652483545942372e+00 1.9462968138716221e+01 0 0 0
384 1 2.3999999999999999e+00 1.3324986095573964e+01 1.9899670339084221e+01 1.2554757641141856e+01 0 1 0
1095 2 -1.2000000000000000e+00 5.6285279872735083e+00 1.9999657454907950e+01 1.2392211067923840e+01 1 0 0
476 1 2.3999999999999999e+00 1.0137791940820073e+01 1.8455534778047927e+01 1.7736049435614387e+01 1 1 0
552 1 2.3999999999999999e+00 2.8258582683825861e+00 5.2739372620141509e+00 1.1683596574204381e+01 0 1 0
2172 2 -1.2000000000000000e+00 6.5438674109753272e+00 1.4961130216281415e+01 1.1196175802657830e+01 0 1 0
812 1 2.3999999999999999e+00 5.0618390041478181e+00 1.4199321004889706e+01 1.1037944382884326e+01 1 1 1
450 1 2.3999999999999999e+00 7.5674487800600483e+00 1.5961033309571921e+01 1.1090529550675360e+01 0 0 -1
1445 2 -1.2000000000000000e+00 9.3990721580305348e+00 1.5056650383158409e+01 1.9360520208609639e+01 0 1 0
2327 2 -1.2000000000000000e+00 1.1445457113366739e+01 1.9238526289395445e+01 1.2670227504630086e+01 0 1 0